<?xml version="1.0" encoding="utf-8"?>
<VTKFile byte_order="LittleEndian" compressor="vtkZLibDataCompressor" type="PolyData"
         version="0.1">
   <PolyData>
      <Piece NumberOfLines="0" NumberOfPoints="456" NumberOfPolys="908" NumberOfStrips="0"
             NumberOfVerts="0">
         <PointData Normals="Normals">
            <DataArray Name="Normals" NumberOfComponents="3" format="ascii" type="Float32">
0.011830 0.769227 0.638866
0.090649 0.339365 0.936277
-0.251431 0.594978 0.763403
-0.011972 0.849914 0.526786
0.304212 0.731801 0.609854
0.354639 0.816506 0.455577
-0.354091 0.291650 0.888572
-0.272686 0.020110 0.961893
-0.041970 -0.128079 0.990876
0.302563 0.009660 0.953081
0.511950 0.216774 0.831214
0.494254 0.478885 0.725522
-0.336781 0.792925 0.507788
-0.581485 0.522950 0.623216
-0.051792 0.948950 0.311145
0.294421 0.907854 0.298525
0.669326 0.553330 0.495811
0.609829 0.748387 0.260818
-0.618868 0.089363 0.780395
-0.386935 -0.235791 0.891450
-0.012797 -0.321988 0.946657
0.391279 -0.213477 0.895169
0.606849 -0.077761 0.791004
0.747261 0.196705 0.634750
-0.382839 0.850344 0.361039
-0.634372 0.665947 0.392538
-0.800975 0.289224 0.524203
-0.171986 0.982363 0.073370
0.136113 0.989866 0.040467
0.412938 0.910730 0.007281
0.848209 0.443172 0.290069
0.690157 0.723010 -0.030660
-0.687118 -0.164826 0.707602
-0.369598 -0.429541 0.823949
0.022690 -0.518612 0.854709
0.455328 -0.450298 0.768055
0.745981 -0.218810 0.628995
0.886126 0.079951 0.456497
-0.474409 0.870040 0.134040
-0.747001 0.626689 0.221925
-0.913115 0.271757 0.303923
-0.874164 -0.122609 0.469898
-0.490396 0.857633 -0.154847
-0.190461 0.960547 -0.202669
0.096698 0.964886 -0.244221
0.403823 0.862790 -0.304171
0.984887 0.078440 0.154416
0.900078 0.433464 -0.044371
0.701241 0.619514 -0.352793
-0.632375 -0.470998 0.615030
-0.273142 -0.643830 0.714756
0.181573 -0.688124 0.702507
0.589172 -0.566802 0.575857
0.864623 -0.275454 0.420182
-0.779232 0.623924 -0.059303
-0.967494 0.249269 0.042663
-0.961265 -0.191422 0.198311
-0.722947 -0.494927 0.482073
-0.495873 0.796145 -0.346789
-0.803576 0.557281 -0.209054
-0.186302 0.883379 -0.430037
0.125130 0.847320 -0.516131
0.421117 0.682565 -0.597298
0.991607 -0.109928 -0.068046
0.920373 0.261126 -0.291080
0.655185 0.408957 -0.635205
-0.341326 -0.744877 0.573284
0.157680 -0.775323 0.611565
0.565623 -0.715697 0.409693
0.863273 -0.471317 0.180612
-0.975607 0.219278 -0.010410
-0.968736 -0.214087 0.125369
-0.740500 -0.614363 0.272429
-0.328822 -0.830276 0.450020
-0.328637 0.725779 -0.604353
-0.649490 0.572877 -0.499975
-0.859663 0.295188 -0.416947
-0.066806 0.717589 -0.693256
0.220924 0.584304 -0.780885
0.424553 0.343994 -0.837510
0.907236 -0.275352 -0.317968
0.851410 0.072997 -0.519396
0.590921 0.007563 -0.806694
0.100494 -0.869563 0.483489
0.620571 -0.707669 0.337782
0.820349 -0.571642 0.015920
-0.983798 0.019490 -0.178216
-0.862082 -0.497809 -0.094869
-0.534675 -0.845054 0.002441
-0.292493 -0.951240 0.097929
-0.578466 0.361126 -0.731413
-0.336944 0.304211 -0.891024
-0.761211 0.137306 -0.633802
-0.885650 -0.220917 -0.408436
-0.186381 0.244516 -0.951564
0.138378 0.214342 -0.966907
0.426708 -0.013800 -0.904284
0.700006 -0.613398 -0.365698
0.718248 -0.312349 -0.621738
0.570535 -0.348244 -0.743785
-0.151954 -0.982265 0.109843
0.130007 -0.990226 0.050503
0.455436 -0.888146 -0.061444
-0.727074 -0.686539 -0.005252
-0.378648 -0.909328 0.172478
-0.197181 -0.975375 0.098814
-0.668130 0.207058 -0.714654
-0.426455 0.365731 -0.827271
-0.950728 -0.063698 -0.303413
-0.897621 -0.396135 0.193271
-0.096828 0.466458 -0.879228
0.483960 0.208394 -0.849915
0.478733 -0.740534 -0.471620
0.811700 -0.193260 -0.551175
0.052088 -0.998263 0.027510
0.270646 -0.945738 -0.179809
-0.428407 -0.654160 0.623331
0.149377 -0.842128 0.518177
-0.719122 0.648301 -0.250139
-0.968582 0.240605 -0.062907
-0.041075 0.927394 -0.371824
-0.959192 -0.051127 0.278095
-0.695386 -0.192038 0.692502
0.572932 0.717155 -0.396783
0.961048 0.187824 -0.202755
0.800252 -0.517302 -0.303309
0.972019 -0.198466 -0.125658
0.651215 -0.747816 0.129191
0.005339 -0.452709 0.891643
0.630697 -0.485831 0.605136
-0.139564 0.987879 0.067955
-0.723833 0.677232 0.131995
-0.948785 0.300473 0.097584
-0.958472 0.184618 0.217363
0.523841 0.851656 -0.016502
-0.830004 0.073970 0.552831
-0.397124 -0.089582 0.913383
0.872173 0.482874 -0.078399
0.973017 -0.127231 -0.192484
0.948306 -0.311033 0.063050
0.980364 -0.175114 -0.090672
0.942664 -0.289728 -0.165656
0.444724 -0.378115 0.811942
0.876891 -0.270705 0.397216
-0.052727 0.949417 0.309559
0.542992 0.837863 0.056079
-0.370447 0.516790 0.771814
-0.723495 0.306157 0.618727
-0.624657 0.551585 0.552773
-0.769912 0.318605 0.552925
0.807447 0.524233 -0.270569
-0.757194 0.246803 0.604769
-0.246146 0.193758 0.949668
0.908892 -0.038303 -0.415269
0.942645 -0.202826 -0.265108
0.917381 -0.255535 -0.305145
0.883681 -0.309424 0.351234
0.988452 -0.122006 -0.089875
0.553140 -0.286114 0.782416
0.173344 0.904032 0.390740
0.436015 0.874579 -0.212139
0.753517 0.341668 -0.561671
0.437514 0.333799 0.834961
0.204223 -0.130065 0.970245
0.152507 0.324838 0.933393
-0.254782 0.414477 0.873667
-0.639475 0.320957 0.698612
0.850703 -0.058699 -0.522358
-0.530782 0.554098 0.641284
-0.458617 0.647491 0.608626
0.206453 0.293772 0.933314
0.943138 -0.095578 -0.318362
0.890269 -0.180815 -0.418003
0.909529 -0.176477 -0.376316
0.929908 -0.131078 -0.343642
0.618755 -0.248747 0.745163
0.623338 -0.157928 0.765838
0.890355 0.083877 0.447474
0.241540 0.954323 -0.175857
0.413712 0.357215 -0.837401
0.658156 0.020803 -0.752594
0.146510 0.897918 0.415064
0.082243 0.127130 0.988471
-0.185666 0.102726 0.977228
-0.543124 0.089631 0.834855
-0.712901 0.070310 0.697731
-0.830685 0.382251 0.404780
0.870593 -0.244765 -0.426800
0.829883 -0.100969 -0.548725
-0.613765 0.561258 0.555232
-0.213236 0.248965 0.944747
0.632534 -0.208986 0.745805
0.981994 0.130388 -0.136697
0.907910 0.036310 -0.417589
0.855534 -0.104096 -0.507174
0.986991 -0.009014 0.160523
0.548810 -0.318571 0.772864
0.352343 -0.143625 0.924785
0.564625 -0.005442 0.825330
-0.019197 0.673664 -0.738788
-0.343555 0.906941 -0.243778
0.243864 0.241539 -0.939249
0.576419 0.188479 -0.795121
-0.789452 0.580767 0.198684
-0.874234 0.020405 0.485075
-0.935492 -0.032436 0.351855
-0.927992 -0.214257 0.304835
-0.961471 -0.225381 0.157408
-0.996416 0.026942 0.080187
0.633027 -0.351936 -0.689506
0.734512 -0.162193 -0.658928
-0.684745 -0.205564 0.699191
0.300270 -0.491766 0.817315
0.556559 -0.441075 0.704056
0.980451 0.162720 -0.110628
0.891318 0.152756 -0.426869
0.722128 -0.021571 -0.691423
0.866802 0.064090 0.494516
0.209144 -0.266899 0.940757
0.419762 -0.062286 0.905495
-0.088193 0.430032 -0.898496
-0.524224 0.571768 -0.631087
-0.872452 0.370556 -0.318615
0.244339 0.206845 -0.947372
-0.991039 0.083701 -0.104096
-0.968599 -0.070555 -0.238405
-0.917396 -0.261404 -0.300087
-0.930932 -0.349557 -0.105719
-0.936795 -0.308065 -0.165862
-0.933356 -0.348906 0.084331
-0.902361 -0.428433 0.046793
0.249107 -0.403546 -0.880396
0.327544 -0.336986 -0.882698
-0.330143 -0.772422 0.542558
0.123862 -0.700985 0.702338
0.949985 0.171309 -0.261117
0.908449 0.137133 0.394861
0.775369 0.067481 -0.627893
0.214003 -0.129440 -0.968219
0.589962 0.003220 -0.807424
0.395586 -0.035105 0.917758
-0.137921 -0.309779 0.940752
-0.329762 0.189653 -0.924818
-0.682957 0.151717 -0.714529
-0.834357 0.059584 -0.547995
-0.174598 -0.295981 -0.939101
-0.822928 -0.201557 -0.531192
-0.874239 -0.432174 -0.221206
-0.755870 -0.302216 -0.580797
-0.687503 -0.325601 -0.649095
-0.909871 -0.412672 0.042861
-0.620361 -0.737422 0.267134
-0.226365 -0.383573 -0.895339
0.890466 0.164425 -0.424304
0.901122 0.204271 0.382429
0.370360 0.077452 0.925654
0.011536 -0.097243 -0.995194
-0.350014 -0.210050 -0.912891
0.554770 0.056416 -0.830089
-0.401993 -0.146282 0.903882
-0.668507 -0.351361 0.655472
-0.539541 -0.209236 -0.815546
-0.639260 -0.280837 -0.715875
-0.894927 -0.240442 0.375891
-0.828522 -0.248324 -0.501883
0.762184 0.145747 -0.630741
0.961620 0.200684 0.187115
0.116694 0.065146 0.991029
-0.111786 -0.082440 -0.990307
0.028004 -0.058781 -0.997878
-0.823966 -0.178038 0.537942
-0.872120 -0.254496 -0.417899
0.657004 0.078621 -0.749776
0.981639 0.184783 0.047333
0.209382 0.112054 0.971392
-0.808807 -0.108531 0.577973
-0.174998 -0.147147 -0.973511
-0.921171 -0.246037 -0.301514
0.644873 0.005436 -0.764271
0.987378 0.126313 0.095550
0.239575 0.096770 0.966043
-0.827125 -0.066945 0.558017
-0.950906 -0.175559 -0.254868
-0.302273 -0.153497 -0.940781
0.667941 -0.018608 -0.743982
0.962959 0.116524 0.243170
0.113239 0.124359 0.985754
-0.854180 -0.007287 0.519927
-0.947290 -0.120971 -0.296660
-0.332865 -0.138864 -0.932694
0.688108 -0.044537 -0.724240
0.967346 0.088457 0.237521
0.142562 0.124621 0.981909
-0.842943 0.023892 0.537472
-0.933577 -0.082814 -0.348676
-0.282377 -0.140804 -0.948914
0.561054 -0.094735 -0.822340
0.990705 0.031544 0.132320
0.212261 0.145611 0.966303
-0.780466 0.081749 0.619830
-0.954932 -0.012995 -0.296542
-0.316018 -0.098234 -0.943654
0.020535 -0.086393 -0.996050
0.808427 -0.069389 -0.584491
0.972879 0.010714 0.231067
0.332455 0.145126 0.931886
-0.612839 0.123320 0.780526
-0.986288 0.052881 0.156331
-0.699531 -0.028449 -0.714035
-0.088751 -0.051620 -0.994715
0.724088 -0.083522 -0.684632
0.992260 -0.017733 0.122909
0.449058 0.159442 0.879162
-0.630472 0.194331 0.751492
-0.954568 0.093294 0.283012
-0.831082 0.052035 -0.553710
-0.113215 0.090776 -0.989415
0.661677 0.000842 -0.749788
0.986141 -0.037185 0.161688
0.662778 0.160356 0.731445
-0.517315 0.386152 0.763723
-0.959790 0.173686 0.220535
-0.942026 0.199697 -0.269645
-0.605687 0.540418 -0.584031
0.191069 0.242130 -0.951244
0.872527 0.239849 -0.425639
0.968229 0.134555 0.210781
0.806444 0.156127 0.570327
-0.019122 0.539747 0.841610
-0.902208 0.372638 0.217166
-0.923183 0.360711 0.132746
-0.432068 0.794153 -0.427361
0.122840 0.408202 -0.904589
-0.625883 0.742072 0.239998
0.406391 0.198857 -0.891797
0.815852 0.175349 -0.551034
0.982827 0.098965 0.155748
0.981579 0.136491 0.133689
0.827941 0.297415 0.475456
0.727677 0.419877 0.542393
0.152837 0.693490 0.704069
-0.848578 0.518892 0.103276
-0.793974 0.603878 0.070261
-0.758442 0.637085 0.137431
-0.394640 0.688164 -0.608842
-0.510359 0.810528 0.287362
0.036839 0.345463 -0.937709
0.311135 0.040160 -0.949517
-0.634150 0.603285 0.483634
0.409132 -0.051687 -0.911010
0.905642 -0.137545 -0.401116
0.919433 -0.322741 0.224683
0.953431 -0.280670 -0.110421
0.997457 0.060748 0.037264
0.829968 0.185502 0.526063
0.741634 0.224889 0.631984
0.710249 0.011395 0.703859
0.372065 0.147170 0.916465
-0.245692 0.696980 0.673687
-0.602930 0.779822 0.168382
-0.582996 0.802091 -0.129486
-0.871467 0.488057 0.048429
-0.682311 0.527057 -0.506618
-0.368968 0.132901 -0.919891
-0.775502 0.631265 -0.010083
-0.553044 0.202639 0.808133
-0.708405 0.440556 0.551428
-0.068051 -0.210649 -0.975190
0.219495 -0.275940 -0.935777
-0.955700 -0.233465 0.179252
0.258489 -0.217120 -0.941298
0.396291 -0.184157 -0.899466
0.819294 -0.532809 -0.211831
0.734732 -0.624641 0.264561
0.727458 -0.660640 -0.185362
0.741815 -0.383402 -0.550194
0.963681 -0.208637 0.166703
0.789862 -0.028527 0.612621
0.768860 0.025582 0.638905
0.616303 -0.206803 0.759870
0.263659 -0.124214 0.956585
-0.265623 0.194416 0.944271
-0.456077 0.746288 0.484818
-0.251261 0.963816 0.089028
-0.303252 0.871868 -0.384559
-0.641286 0.394715 -0.657991
-0.680773 0.047702 -0.730940
-0.974073 0.218788 -0.057570
-0.318242 -0.135881 -0.938221
-0.913903 0.044326 0.403505
-0.508920 -0.248063 0.824297
-0.535553 -0.149172 0.831222
-0.095742 -0.155848 -0.983130
0.140186 -0.219007 -0.965600
-0.571505 -0.069603 -0.817642
-0.914265 -0.396528 -0.082976
0.226669 -0.242773 -0.943230
0.420080 -0.673850 -0.607832
0.484855 -0.863571 0.138419
0.361060 -0.908773 0.209204
0.306454 -0.836201 -0.454813
0.661220 -0.700060 -0.269635
0.753369 -0.104584 0.649229
0.687418 -0.141916 0.712262
0.530513 -0.274936 0.801852
0.249080 -0.258192 0.933432
-0.171669 -0.023060 0.984885
-0.688387 0.163314 0.706719
-0.630972 0.765931 -0.123384
-0.510166 0.346810 -0.787054
-0.853209 -0.313704 -0.416683
-0.862522 -0.438283 0.252910
-0.566249 -0.400668 -0.720296
-0.636670 -0.595824 0.489535
-0.358080 -0.534972 0.765234
-0.143893 -0.650226 -0.745990
0.160912 -0.674351 -0.720665
-0.495577 -0.230179 -0.837509
-0.637171 -0.231223 -0.735220
-0.454350 -0.488929 -0.744657
-0.576725 -0.771896 -0.267516
-0.388636 -0.791064 0.472419
0.158087 -0.971887 -0.174483
0.166638 -0.969012 0.182342
-0.050275 -0.971722 -0.230714
-0.071627 -0.922977 0.378130
0.061779 -0.838021 -0.542129
0.267071 -0.891965 -0.364790
0.623178 -0.662234 0.416048
0.567305 -0.130603 0.813085
0.438215 -0.285951 0.852173
0.167697 -0.271719 0.947653
-0.103595 -0.241779 0.964785
-0.767512 -0.382196 0.514637
-0.982330 0.080624 -0.168899
-0.608311 -0.763817 0.215736
-0.419469 -0.782099 0.460834
-0.431627 -0.902028 0.006637
-0.164834 -0.826862 0.537707
-0.098529 -0.994209 -0.042914
-0.561672 -0.557240 -0.611562
-0.865102 -0.465356 -0.187198
-0.382834 -0.684735 -0.620142
-0.294262 -0.694379 -0.656694
-0.054882 -0.975482 0.213126
0.141665 -0.986704 -0.079659
-0.123289 -0.862297 -0.491165
0.413900 -0.462902 0.783842
0.043010 -0.452698 0.890626
-0.436798 -0.569602 0.696248
-0.714675 -0.698365 0.039056
-0.252628 -0.919024 0.302613
-0.526845 -0.803691 -0.276613
-0.224316 -0.967776 -0.114420
-0.025796 -0.900940 0.433175
-0.386401 -0.899922 0.202077
</DataArray>
         </PointData>
         <Points>
            <DataArray NumberOfComponents="3" format="ascii" type="Float32">	0.003842 0.017958 0.013652
0.010364 0.009940 0.016639
-0.000696 0.015219 0.017889
0.002807 0.020181 0.010055
0.010493 0.017754 0.010177
0.013716 0.017192 0.005023
-0.002737 0.008499 0.021702
0.001386 0.000422 0.023717
0.009772 -0.003949 0.021095
0.016967 0.001573 0.016478
0.019055 0.006103 0.010356
0.016171 0.014041 0.007910
-0.002197 0.017994 0.014109
-0.006585 0.012140 0.018923
-0.000071 0.021938 0.004669
0.008577 0.020349 0.001403
0.019524 0.011589 0.002536
0.015095 0.016597 -0.001988
-0.006434 0.003825 0.022570
-0.000731 -0.003058 0.023331
0.009324 -0.007011 0.020616
0.017101 -0.004351 0.016212
0.020889 -0.001110 0.010612
0.022091 0.003560 0.006305
-0.005865 0.020031 0.009162
-0.010383 0.015075 0.014052
-0.011757 0.007270 0.019068
-0.003257 0.022332 -0.000239
0.001786 0.022024 -0.003821
0.007620 0.019830 -0.006806
0.019941 0.010163 -0.004302
0.014183 0.014898 -0.009731
-0.007876 -0.002410 0.022372
-0.000178 -0.008270 0.022337
0.009701 -0.010046 0.019249
0.017341 -0.008389 0.014099
0.022070 -0.004278 0.006700
0.023255 0.002188 -0.001606
-0.008919 0.020459 0.004158
-0.013975 0.015997 0.009127
-0.016528 0.007580 0.014876
-0.013954 -0.000824 0.019135
-0.012881 0.019084 -0.000946
-0.007203 0.021062 -0.004547
-0.001968 0.020910 -0.008646
0.003243 0.018919 -0.012326
0.023328 0.000042 -0.004904
0.018941 0.008983 -0.010073
0.010314 0.012330 -0.016362
-0.007346 -0.008269 0.020966
0.001007 -0.012100 0.020187
0.009912 -0.014356 0.016234
0.018546 -0.011217 0.009242
0.022389 -0.007572 0.002255
-0.017476 0.014649 0.003834
-0.019874 0.006870 0.010049
-0.017811 -0.002943 0.014971
-0.010759 -0.010383 0.018149
-0.016425 0.015790 -0.003989
-0.020530 0.010676 0.002674
-0.010529 0.018212 -0.009105
-0.004209 0.017299 -0.014362
0.001795 0.013292 -0.018777
0.020818 -0.004555 -0.010103
0.015825 0.004721 -0.016173
0.006603 0.007761 -0.021054
-0.001331 -0.014202 0.018671
0.008966 -0.016454 0.014681
0.017434 -0.014492 0.006058
0.021735 -0.009662 -0.002808
-0.021783 0.001269 0.008280
-0.018203 -0.007284 0.012860
-0.008991 -0.013007 0.018118
0.000916 -0.016183 0.017002
-0.012578 0.015106 -0.012333
-0.017838 0.013337 -0.007257
-0.021895 0.007923 -0.001314
-0.008345 0.013491 -0.017341
-0.004404 0.011278 -0.020192
-0.000711 0.005956 -0.022518
0.015350 -0.006005 -0.016775
0.011729 0.000197 -0.020478
0.004923 -0.002573 -0.022953
0.011055 -0.017819 0.010871
0.015888 -0.016880 -0.000427
0.017742 -0.012795 -0.009032
-0.023539 0.000222 0.004377
-0.020759 -0.006831 0.009074
-0.012291 -0.013323 0.012672
-0.002585 -0.016433 0.013182
-0.019637 0.009058 -0.009097
-0.014359 0.010111 -0.015073
-0.022119 0.002770 -0.003396
-0.022436 -0.004603 0.000037
-0.009876 0.007525 -0.020088
-0.004220 0.003165 -0.022767
-0.001355 -0.004253 -0.023192
0.013881 -0.016180 -0.010752
0.009637 -0.009036 -0.019528
0.003467 -0.011273 -0.020113
0.005026 -0.018666 0.009774
0.009670 -0.019645 0.005387
0.013368 -0.018607 -0.003124
-0.016658 -0.012342 0.006659
-0.008185 -0.016182 0.008017
-0.000907 -0.018639 0.006139
-0.018783 -0.003078 -0.009040
-0.013551 0.001792 -0.013892
-0.020765 -0.010737 -0.003639
-0.016085 -0.017354 0.001529
-0.009622 -0.000881 -0.018578
-0.004917 -0.004689 -0.022966
0.006648 -0.016944 -0.014506
-0.000855 -0.011619 -0.021196
0.004330 -0.019301 0.001657
0.007579 -0.019238 -0.005713
-0.009419 -0.020931 0.002479
-0.001605 -0.022242 -0.002411
-0.021414 -0.010040 -0.016722
-0.023421 -0.017347 -0.010274
-0.015868 -0.006126 -0.022371
-0.019662 -0.022634 -0.004526
-0.016055 -0.028284 -0.001830
-0.010460 -0.009731 -0.027178
-0.007218 -0.017303 -0.027236
0.001942 -0.016859 -0.016460
-0.006166 -0.024231 -0.024094
0.002732 -0.020583 -0.010333
-0.010634 -0.030961 -0.002197
-0.005503 -0.032066 -0.007792
-0.020470 -0.007563 -0.027194
-0.023987 -0.012094 -0.020649
-0.025378 -0.019723 -0.014068
-0.024228 -0.027207 -0.009189
-0.016376 -0.010078 -0.032408
-0.019419 -0.034515 -0.002753
-0.015831 -0.036666 -0.001180
-0.012129 -0.014574 -0.034845
-0.009747 -0.020687 -0.035204
-0.004839 -0.030328 -0.018320
-0.009340 -0.035277 -0.025252
-0.010671 -0.026331 -0.031155
-0.008375 -0.040471 -0.008362
-0.005825 -0.040178 -0.016611
-0.024032 -0.007000 -0.032839
-0.019891 -0.008687 -0.037076
-0.029462 -0.011081 -0.026192
-0.030708 -0.019035 -0.024315
-0.029777 -0.026880 -0.017646
-0.027142 -0.035291 -0.008492
-0.016734 -0.012536 -0.040494
-0.022892 -0.041673 -0.003547
-0.018861 -0.045491 0.000442
-0.015882 -0.017677 -0.041273
-0.014651 -0.032634 -0.032268
-0.016314 -0.024218 -0.038000
-0.007000 -0.047696 -0.016341
-0.010820 -0.040907 -0.025455
-0.012259 -0.047619 -0.006465
-0.029245 -0.005615 -0.035944
-0.025735 -0.006410 -0.042281
-0.022674 -0.012826 -0.044720
-0.035667 -0.005434 -0.021234
-0.038315 -0.015040 -0.023278
-0.038194 -0.024219 -0.020622
-0.036670 -0.030561 -0.013872
-0.033271 -0.037848 -0.010344
-0.021643 -0.022191 -0.043566
-0.027877 -0.045058 -0.004577
-0.024439 -0.048896 -0.000452
-0.019932 -0.051060 0.004673
-0.019011 -0.037924 -0.035480
-0.021316 -0.031198 -0.039330
-0.010673 -0.050944 -0.025232
-0.014922 -0.044264 -0.030133
-0.017558 -0.054350 -0.002342
-0.010116 -0.055988 -0.011930
-0.007175 -0.053940 -0.019258
-0.031352 -0.005167 -0.040117
-0.026681 -0.014949 -0.046085
-0.024789 -0.024883 -0.044501
-0.036831 -0.002493 -0.023381
-0.040737 -0.005575 -0.015410
-0.043268 -0.020037 -0.016023
-0.041926 -0.030468 -0.012420
-0.039250 -0.040547 -0.010529
-0.033555 -0.047292 -0.004492
-0.023255 -0.041770 -0.038201
-0.024797 -0.034660 -0.043299
-0.029325 -0.051202 0.004980
-0.024527 -0.055006 0.008424
-0.020213 -0.057477 0.004984
-0.009615 -0.056628 -0.024341
-0.014437 -0.053949 -0.029563
-0.019410 -0.048073 -0.034497
-0.007119 -0.059295 -0.018515
-0.019921 -0.058910 -0.002072
-0.015091 -0.060295 -0.008582
-0.010423 -0.061004 -0.012451
-0.036014 -0.007412 -0.041619
-0.041917 -0.003571 -0.027751
-0.033175 -0.017002 -0.045851
-0.031726 -0.026358 -0.046841
-0.045648 -0.004863 -0.017513
-0.047352 -0.021134 -0.016112
-0.047937 -0.030502 -0.014938
-0.046320 -0.039869 -0.014468
-0.037217 -0.050191 -0.010930
-0.032567 -0.055079 0.002952
-0.028930 -0.043727 -0.040703
-0.029940 -0.036439 -0.046327
-0.027581 -0.058342 0.007394
-0.022369 -0.061243 0.004295
-0.021157 -0.063117 -0.004590
-0.009462 -0.062739 -0.026196
-0.016782 -0.057341 -0.032924
-0.024327 -0.053880 -0.036239
-0.006420 -0.065463 -0.020651
-0.015533 -0.066013 -0.009477
-0.008882 -0.066887 -0.014017
-0.039386 -0.012070 -0.041542
-0.048401 -0.008889 -0.030076
-0.049354 -0.011686 -0.021990
-0.037630 -0.024861 -0.048086
-0.050474 -0.019877 -0.021951
-0.050541 -0.030890 -0.022656
-0.048131 -0.039502 -0.022517
-0.041210 -0.055600 -0.017486
-0.033483 -0.060643 -0.009744
-0.035227 -0.063932 -0.017583
-0.033214 -0.062043 0.000798
-0.033877 -0.045334 -0.040068
-0.034753 -0.036094 -0.047979
-0.027808 -0.063716 0.004615
-0.023379 -0.068113 -0.006771
-0.009803 -0.070060 -0.029751
-0.005693 -0.071926 -0.020522
-0.017742 -0.068322 -0.035036
-0.030663 -0.053434 -0.037894
-0.023425 -0.067141 -0.037694
-0.010218 -0.072781 -0.013264
-0.017757 -0.071011 -0.009658
-0.043022 -0.025432 -0.044159
-0.049300 -0.023280 -0.036726
-0.050811 -0.024656 -0.030057
-0.040446 -0.038704 -0.043238
-0.049823 -0.034139 -0.030872
-0.038268 -0.065294 -0.024589
-0.041700 -0.057067 -0.025009
-0.045513 -0.046825 -0.027749
-0.031845 -0.075495 -0.021926
-0.030141 -0.068009 -0.009050
-0.038886 -0.048512 -0.035587
-0.003900 -0.086214 -0.028495
-0.002298 -0.086126 -0.021219
-0.007159 -0.087135 -0.014919
-0.029662 -0.067924 -0.037139
-0.035888 -0.058370 -0.033142
-0.014244 -0.086102 -0.036463
-0.016081 -0.087626 -0.013789
-0.018854 -0.078766 -0.012619
-0.046045 -0.037449 -0.037972
-0.035783 -0.066698 -0.031285
-0.023766 -0.090792 -0.020120
-0.028151 -0.088734 -0.034081
0.001130 -0.117296 -0.033921
0.004106 -0.109953 -0.022682
-0.001636 -0.115552 -0.012728
-0.023128 -0.088052 -0.039375
-0.011420 -0.118003 -0.040036
-0.014928 -0.117271 -0.019522
-0.017080 -0.119474 -0.036567
0.008000 -0.147983 -0.034997
0.013404 -0.145574 -0.023810
0.005405 -0.145730 -0.010841
-0.005819 -0.148763 -0.017758
-0.001568 -0.150005 -0.037674
-0.008241 -0.151216 -0.031948
0.014882 -0.180313 -0.033689
0.019378 -0.177471 -0.023228
0.011533 -0.177062 -0.010003
-0.000264 -0.177063 -0.016379
-0.001697 -0.179440 -0.028225
0.004301 -0.178845 -0.035712
0.018546 -0.208022 -0.031864
0.022792 -0.206080 -0.017882
0.012254 -0.206206 -0.008997
0.003830 -0.208409 -0.014782
0.002853 -0.209697 -0.026398
0.008711 -0.209597 -0.033511
0.022968 -0.243066 -0.028620
0.026381 -0.241264 -0.015942
0.016936 -0.240242 -0.006404
0.007131 -0.240663 -0.011413
0.005941 -0.243709 -0.023241
0.013192 -0.243890 -0.030772
0.026138 -0.275646 -0.024394
0.029041 -0.274018 -0.013633
0.019491 -0.271816 -0.003473
0.008499 -0.273458 -0.008863
0.007902 -0.276051 -0.022018
0.015575 -0.277407 -0.027552
0.016599 -0.307800 -0.025189
0.024233 -0.307502 -0.023557
0.029351 -0.305860 -0.009390
0.022820 -0.304456 -0.000203
0.013278 -0.304278 -0.002585
0.007049 -0.305554 -0.011079
0.008859 -0.307613 -0.021772
0.015352 -0.340633 -0.023573
0.026230 -0.341024 -0.021232
0.029822 -0.341664 -0.007437
0.022040 -0.338859 0.004489
0.012388 -0.337436 0.002060
0.007327 -0.338179 -0.007840
0.006487 -0.339610 -0.019335
0.012891 -0.367388 -0.023824
0.027287 -0.370280 -0.018421
0.027335 -0.368465 -0.002580
0.023017 -0.365346 0.007746
0.012174 -0.362537 0.009787
0.005666 -0.367746 -0.006160
0.003699 -0.366961 -0.020015
0.000248 -0.379953 -0.023606
0.013084 -0.381437 -0.026328
0.027499 -0.386524 -0.021629
0.027315 -0.384931 -0.000392
0.019953 -0.378024 0.013004
0.010093 -0.375358 0.017522
0.006001 -0.377939 0.008604
0.004376 -0.380700 -0.003900
-0.005393 -0.386908 -0.029111
0.009417 -0.394172 -0.032120
-0.002827 -0.386950 -0.015069
0.020402 -0.397334 -0.029406
0.032814 -0.397236 -0.022012
0.030595 -0.395803 -0.009333
0.028861 -0.395923 0.001007
0.024914 -0.391159 0.012309
0.018710 -0.388099 0.019920
0.004828 -0.387986 0.032758
0.009144 -0.382211 0.022783
0.002258 -0.386063 0.012846
0.001332 -0.387863 -0.000840
-0.011961 -0.391566 -0.029637
-0.012186 -0.390087 -0.014888
-0.000275 -0.398518 -0.036690
0.007765 -0.402182 -0.034805
-0.009088 -0.392127 -0.009640
0.018920 -0.404484 -0.030116
0.032902 -0.405952 -0.022247
0.030232 -0.405345 -0.009686
0.027703 -0.406431 -0.000644
0.030531 -0.405352 0.006931
0.023789 -0.399990 0.017170
0.017083 -0.394771 0.026754
0.015372 -0.402297 0.029554
0.009740 -0.397918 0.036172
0.000975 -0.394027 0.036903
-0.002898 -0.391301 0.025409
-0.003936 -0.392524 0.015992
-0.004313 -0.394464 0.001358
-0.019315 -0.397000 -0.028132
-0.012413 -0.402755 -0.035731
-0.020486 -0.395546 -0.022485
-0.013450 -0.400649 -0.006858
-0.019200 -0.397443 -0.012507
-0.004824 -0.406224 -0.037628
0.005202 -0.408443 -0.034806
-0.004591 -0.400066 0.000970
0.014830 -0.411899 -0.030451
0.021947 -0.413354 -0.028552
0.028592 -0.414204 -0.023419
0.027258 -0.413645 -0.011555
0.023060 -0.412977 -0.000879
0.027359 -0.413810 0.005224
0.031026 -0.414385 0.009310
0.027550 -0.410568 0.015435
0.022468 -0.407738 0.020543
0.013031 -0.409421 0.030167
0.004824 -0.402633 0.037628
-0.009298 -0.397554 0.035515
-0.017566 -0.394122 0.027478
-0.005686 -0.393543 0.027860
-0.012236 -0.392955 0.018433
-0.010284 -0.398362 0.012483
-0.023783 -0.406220 -0.030223
-0.024959 -0.404414 -0.023714
-0.015202 -0.410292 -0.031108
-0.022988 -0.405472 -0.014433
-0.005308 -0.408388 -0.006823
-0.018816 -0.408765 -0.009264
-0.009132 -0.413578 -0.032898
0.000545 -0.416642 -0.032570
-0.003337 -0.408863 0.008795
0.001689 -0.410554 0.001186
0.014097 -0.417720 -0.029257
0.020491 -0.421304 -0.026471
0.020311 -0.421241 -0.015215
0.016796 -0.417887 -0.005184
0.018396 -0.418868 0.003280
0.026726 -0.421107 0.010691
0.025205 -0.417231 0.017918
0.019397 -0.413299 0.022148
0.010578 -0.414317 0.030513
0.000397 -0.411863 0.035794
-0.009689 -0.409211 0.036175
-0.022736 -0.408518 0.033296
-0.019783 -0.395822 0.020487
-0.019043 -0.403336 0.012733
-0.023886 -0.412954 -0.028519
-0.024375 -0.410552 -0.020086
-0.018479 -0.417224 -0.032330
-0.017494 -0.415397 -0.012962
-0.007925 -0.416280 -0.008166
-0.010256 -0.422335 -0.032869
0.003120 -0.423059 -0.030607
-0.015510 -0.415554 0.013776
-0.020542 -0.409831 0.013941
-0.006817 -0.422000 0.013327
0.004846 -0.416357 0.000432
0.004736 -0.417706 -0.006339
0.011093 -0.423568 -0.026485
0.011812 -0.424598 -0.018470
0.010714 -0.418415 -0.000539
0.009960 -0.421177 -0.009923
0.011753 -0.421603 0.004630
0.016987 -0.425625 0.012163
0.019878 -0.425175 0.021438
0.014965 -0.418886 0.025153
0.007382 -0.420808 0.029198
0.001106 -0.417849 0.033892
-0.009720 -0.415455 0.035528
-0.020209 -0.414476 0.033413
-0.024482 -0.403513 0.020683
-0.016920 -0.419300 -0.019088
-0.011968 -0.418955 -0.013392
-0.014226 -0.421751 -0.025097
-0.001221 -0.420783 -0.011535
-0.003397 -0.424534 -0.023943
-0.016699 -0.420793 0.017889
-0.023190 -0.415806 0.022676
-0.006066 -0.426428 0.015533
0.003960 -0.421652 0.006913
0.003665 -0.424559 -0.017867
0.006767 -0.430363 0.020581
0.002181 -0.429172 0.015118
0.009659 -0.428067 0.027432
-0.006606 -0.425121 0.033696
-0.015949 -0.422695 0.031049
-0.018080 -0.422181 0.023897
-0.007064 -0.422840 -0.017636
-0.011267 -0.426908 0.020629
-0.003944 -0.429494 0.020289
-0.000910 -0.428210 0.031016
-0.010415 -0.427177 0.026879
</DataArray>
         </Points>
         <Polys>
            <DataArray Name="connectivity" format="ascii" type="Int32">